s 0.029290548 _1_ RTR  --- 0 message 32 [0 0 0 0] ------- [1:255 -1:255 32 0] 
s 0.029365548 _1_ MAC  --- 0 message 90 [0 ffffffff 1 800] ------- [1:255 -1:255 32 0] 
r 0.030085562 _0_ MAC  --- 0 message 32 [0 ffffffff 1 800] ------- [1:255 -1:255 32 0] 
r 0.030110562 _0_ RTR  --- 0 message 32 [0 ffffffff 1 800] ------- [1:255 -1:255 32 0] 
s 1.119926192 _0_ RTR  --- 1 message 32 [0 0 0 0] ------- [0:255 -1:255 32 0] 
s 1.120361192 _0_ MAC  --- 1 message 90 [0 ffffffff 0 800] ------- [0:255 -1:255 32 0] 
r 1.121081207 _1_ MAC  --- 1 message 32 [0 ffffffff 0 800] ------- [0:255 -1:255 32 0] 
r 1.121106207 _1_ RTR  --- 1 message 32 [0 ffffffff 0 800] ------- [0:255 -1:255 32 0] 
s 3.000000000 _0_ AGT  --- 2 tcp 40 [0 0 0 0] ------- [0:0 1:0 32 0] [0 0] 0 0
r 3.000000000 _0_ RTR  --- 2 tcp 40 [0 0 0 0] ------- [0:0 1:0 32 0] [0 0] 0 0
s 3.000000000 _0_ RTR  --- 2 tcp 60 [0 0 0 0] ------- [0:0 1:0 32 1] [0 0] 0 0
s 3.000295000 _0_ MAC  --- 0 ARP 86 [0 ffffffff 0 806] ------- [REQUEST 0/0 0/1]
r 3.000983014 _1_ MAC  --- 0 ARP 28 [0 ffffffff 0 806] ------- [REQUEST 0/0 0/1]
s 3.001578014 _1_ MAC  --- 0 RTS 44 [52e 0 1 0] 
r 3.001930028 _0_ MAC  --- 0 RTS 44 [52e 0 1 0] 
s 3.001940028 _0_ MAC  --- 0 CTS 38 [3f4 1 0 0] 
r 3.002244042 _1_ MAC  --- 0 CTS 38 [3f4 1 0 0] 
s 3.002254042 _1_ MAC  --- 0 ARP 86 [13a 0 1 806] ------- [REPLY 1/1 0/0]
r 3.002942057 _0_ MAC  --- 0 ARP 28 [13a 0 1 806] ------- [REPLY 1/1 0/0]
s 3.002952057 _0_ MAC  --- 0 ACK 38 [0 1 0 0] 
r 3.003256071 _1_ MAC  --- 0 ACK 38 [0 1 0 0] 
s 3.003466057 _0_ MAC  --- 0 RTS 44 [62e 1 0 0] 
r 3.003818071 _1_ MAC  --- 0 RTS 44 [62e 1 0 0] 
s 3.003828071 _1_ MAC  --- 0 CTS 38 [4f4 0 0 0] 
r 3.004132085 _0_ MAC  --- 0 CTS 38 [4f4 0 0 0] 
s 3.004142085 _0_ MAC  --- 2 tcp 118 [13a 1 0 800] ------- [0:0 1:0 32 1] [0 0] 0 0
r 3.005086099 _1_ MAC  --- 2 tcp 60 [13a 1 0 800] ------- [0:0 1:0 32 1] [0 0] 1 0
s 3.005096099 _1_ MAC  --- 0 ACK 38 [0 0 0 0] 
r 3.005111099 _1_ AGT  --- 2 tcp 60 [13a 1 0 800] ------- [0:0 1:0 32 1] [0 0] 1 0
s 3.005111099 _1_ AGT  --- 3 ack 40 [0 0 0 0] ------- [1:0 0:0 32 0] [0 0] 0 0
r 3.005111099 _1_ RTR  --- 3 ack 40 [0 0 0 0] ------- [1:0 0:0 32 0] [0 0] 0 0
s 3.005111099 _1_ RTR  --- 3 ack 60 [0 0 0 0] ------- [1:0 0:0 32 0] [0 0] 0 0
r 3.005400113 _0_ MAC  --- 0 ACK 38 [0 0 0 0] 
s 3.005650099 _1_ MAC  --- 0 RTS 44 [62e 0 1 0] 
r 3.006002113 _0_ MAC  --- 0 RTS 44 [62e 0 1 0] 
s 3.006012113 _0_ MAC  --- 0 CTS 38 [4f4 1 0 0] 
r 3.006316127 _1_ MAC  --- 0 CTS 38 [4f4 1 0 0] 
s 3.006326127 _1_ MAC  --- 3 ack 118 [13a 0 1 800] ------- [1:0 0:0 32 0] [0 0] 0 0
r 3.007270141 _0_ MAC  --- 3 ack 60 [13a 0 1 800] ------- [1:0 0:0 32 0] [0 0] 1 0
s 3.007280141 _0_ MAC  --- 0 ACK 38 [0 1 0 0] 
r 3.007295141 _0_ AGT  --- 3 ack 60 [13a 0 1 800] ------- [1:0 0:0 32 0] [0 0] 1 0
s 3.007295141 _0_ AGT  --- 4 tcp 1040 [0 0 0 0] ------- [0:0 1:0 32 0] [1 0] 0 0
r 3.007295141 _0_ RTR  --- 4 tcp 1040 [0 0 0 0] ------- [0:0 1:0 32 0] [1 0] 0 0
s 3.007295141 _0_ RTR  --- 4 tcp 1060 [0 0 0 0] ------- [0:0 1:0 32 1] [1 0] 0 0
s 3.007295141 _0_ AGT  --- 5 tcp 1040 [0 0 0 0] ------- [0:0 1:0 32 0] [2 0] 0 0
r 3.007295141 _0_ RTR  --- 5 tcp 1040 [0 0 0 0] ------- [0:0 1:0 32 0] [2 0] 0 0
s 3.007295141 _0_ RTR  --- 5 tcp 1060 [0 0 0 0] ------- [0:0 1:0 32 1] [2 0] 0 0
r 3.007584156 _1_ MAC  --- 0 ACK 38 [0 1 0 0] 
s 3.007694141 _0_ MAC  --- 0 RTS 44 [256e 1 0 0] 
r 3.008046156 _1_ MAC  --- 0 RTS 44 [256e 1 0 0] 
s 3.008056156 _1_ MAC  --- 0 CTS 38 [2434 0 0 0] 
r 3.008360170 _0_ MAC  --- 0 CTS 38 [2434 0 0 0] 
s 3.008370170 _0_ MAC  --- 4 tcp 1118 [13a 1 0 800] ------- [0:0 1:0 32 1] [1 0] 0 0
r 3.017314184 _1_ MAC  --- 4 tcp 1060 [13a 1 0 800] ------- [0:0 1:0 32 1] [1 0] 1 0
s 3.017324184 _1_ MAC  --- 0 ACK 38 [0 0 0 0] 
r 3.017339184 _1_ AGT  --- 4 tcp 1060 [13a 1 0 800] ------- [0:0 1:0 32 1] [1 0] 1 0
s 3.017339184 _1_ AGT  --- 6 ack 40 [0 0 0 0] ------- [1:0 0:0 32 0] [1 0] 0 0
r 3.017339184 _1_ RTR  --- 6 ack 40 [0 0 0 0] ------- [1:0 0:0 32 0] [1 0] 0 0
s 3.017339184 _1_ RTR  --- 6 ack 60 [0 0 0 0] ------- [1:0 0:0 32 0] [1 0] 0 0
r 3.017628198 _0_ MAC  --- 0 ACK 38 [0 0 0 0] 
s 3.017798184 _1_ MAC  --- 0 RTS 44 [62e 0 1 0] 
r 3.018150198 _0_ MAC  --- 0 RTS 44 [62e 0 1 0] 
s 3.018160198 _0_ MAC  --- 0 CTS 38 [4f4 1 0 0] 
r 3.018464212 _1_ MAC  --- 0 CTS 38 [4f4 1 0 0] 
s 3.018474212 _1_ MAC  --- 6 ack 118 [13a 0 1 800] ------- [1:0 0:0 32 0] [1 0] 0 0
r 3.019418226 _0_ MAC  --- 6 ack 60 [13a 0 1 800] ------- [1:0 0:0 32 0] [1 0] 1 0
s 3.019428226 _0_ MAC  --- 0 ACK 38 [0 1 0 0] 
r 3.019443226 _0_ AGT  --- 6 ack 60 [13a 0 1 800] ------- [1:0 0:0 32 0] [1 0] 1 0
s 3.019443226 _0_ AGT  --- 7 tcp 1040 [0 0 0 0] ------- [0:0 1:0 32 0] [3 0] 0 0
r 3.019443226 _0_ RTR  --- 7 tcp 1040 [0 0 0 0] ------- [0:0 1:0 32 0] [3 0] 0 0
s 3.019443226 _0_ RTR  --- 7 tcp 1060 [0 0 0 0] ------- [0:0 1:0 32 1] [3 0] 0 0
s 3.019443226 _0_ AGT  --- 8 tcp 1040 [0 0 0 0] ------- [0:0 1:0 32 0] [4 0] 0 0
r 3.019443226 _0_ RTR  --- 8 tcp 1040 [0 0 0 0] ------- [0:0 1:0 32 0] [4 0] 0 0
s 3.019443226 _0_ RTR  --- 8 tcp 1060 [0 0 0 0] ------- [0:0 1:0 32 1] [4 0] 0 0
r 3.019732240 _1_ MAC  --- 0 ACK 38 [0 1 0 0] 
s 3.020162226 _0_ MAC  --- 0 RTS 44 [256e 1 0 0] 
r 3.020514240 _1_ MAC  --- 0 RTS 44 [256e 1 0 0] 
s 3.020524240 _1_ MAC  --- 0 CTS 38 [2434 0 0 0] 
r 3.020828255 _0_ MAC  --- 0 CTS 38 [2434 0 0 0] 
s 3.020838255 _0_ MAC  --- 5 tcp 1118 [13a 1 0 800] ------- [0:0 1:0 32 1] [2 0] 0 0
r 3.029782269 _1_ MAC  --- 5 tcp 1060 [13a 1 0 800] ------- [0:0 1:0 32 1] [2 0] 1 0
s 3.029792269 _1_ MAC  --- 0 ACK 38 [0 0 0 0] 
r 3.029807269 _1_ AGT  --- 5 tcp 1060 [13a 1 0 800] ------- [0:0 1:0 32 1] [2 0] 1 0
s 3.029807269 _1_ AGT  --- 9 ack 40 [0 0 0 0] ------- [1:0 0:0 32 0] [2 0] 0 0
r 3.029807269 _1_ RTR  --- 9 ack 40 [0 0 0 0] ------- [1:0 0:0 32 0] [2 0] 0 0
s 3.029807269 _1_ RTR  --- 9 ack 60 [0 0 0 0] ------- [1:0 0:0 32 0] [2 0] 0 0
r 3.030096283 _0_ MAC  --- 0 ACK 38 [0 0 0 0] 
s 3.030346283 _0_ MAC  --- 0 RTS 44 [256e 1 0 0] 
r 3.030698297 _1_ MAC  --- 0 RTS 44 [256e 1 0 0] 
s 3.030708297 _1_ MAC  --- 0 CTS 38 [2434 0 0 0] 
r 3.031012311 _0_ MAC  --- 0 CTS 38 [2434 0 0 0] 
s 3.031022311 _0_ MAC  --- 7 tcp 1118 [13a 1 0 800] ------- [0:0 1:0 32 1] [3 0] 0 0
r 3.039966325 _1_ MAC  --- 7 tcp 1060 [13a 1 0 800] ------- [0:0 1:0 32 1] [3 0] 1 0
s 3.039976325 _1_ MAC  --- 0 ACK 38 [0 0 0 0] 
r 3.039991325 _1_ AGT  --- 7 tcp 1060 [13a 1 0 800] ------- [0:0 1:0 32 1] [3 0] 1 0
s 3.039991325 _1_ AGT  --- 10 ack 40 [0 0 0 0] ------- [1:0 0:0 32 0] [3 0] 0 0
r 3.039991325 _1_ RTR  --- 10 ack 40 [0 0 0 0] ------- [1:0 0:0 32 0] [3 0] 0 0
s 3.039991325 _1_ RTR  --- 10 ack 60 [0 0 0 0] ------- [1:0 0:0 32 0] [3 0] 0 0
r 3.040280339 _0_ MAC  --- 0 ACK 38 [0 0 0 0] 
s 3.040450325 _1_ MAC  --- 0 RTS 44 [62e 0 1 0] 
r 3.040802339 _0_ MAC  --- 0 RTS 44 [62e 0 1 0] 
s 3.040812339 _0_ MAC  --- 0 CTS 38 [4f4 1 0 0] 
r 3.041116354 _1_ MAC  --- 0 CTS 38 [4f4 1 0 0] 
s 3.041126354 _1_ MAC  --- 9 ack 118 [13a 0 1 800] ------- [1:0 0:0 32 0] [2 0] 0 0
r 3.042070368 _0_ MAC  --- 9 ack 60 [13a 0 1 800] ------- [1:0 0:0 32 0] [2 0] 1 0
s 3.042080368 _0_ MAC  --- 0 ACK 38 [0 1 0 0] 
r 3.042095368 _0_ AGT  --- 9 ack 60 [13a 0 1 800] ------- [1:0 0:0 32 0] [2 0] 1 0
s 3.042095368 _0_ AGT  --- 11 tcp 1040 [0 0 0 0] ------- [0:0 1:0 32 0] [5 0] 0 0
r 3.042095368 _0_ RTR  --- 11 tcp 1040 [0 0 0 0] ------- [0:0 1:0 32 0] [5 0] 0 0
s 3.042095368 _0_ RTR  --- 11 tcp 1060 [0 0 0 0] ------- [0:0 1:0 32 1] [5 0] 0 0
s 3.042095368 _0_ AGT  --- 12 tcp 1040 [0 0 0 0] ------- [0:0 1:0 32 0] [6 0] 0 0
r 3.042095368 _0_ RTR  --- 12 tcp 1040 [0 0 0 0] ------- [0:0 1:0 32 0] [6 0] 0 0
s 3.042095368 _0_ RTR  --- 12 tcp 1060 [0 0 0 0] ------- [0:0 1:0 32 1] [6 0] 0 0
r 3.042384382 _1_ MAC  --- 0 ACK 38 [0 1 0 0] 
s 3.042454382 _1_ MAC  --- 0 RTS 44 [62e 0 1 0] 
r 3.042806396 _0_ MAC  --- 0 RTS 44 [62e 0 1 0] 
s 3.042816396 _0_ MAC  --- 0 CTS 38 [4f4 1 0 0] 
r 3.043120410 _1_ MAC  --- 0 CTS 38 [4f4 1 0 0] 
s 3.043130410 _1_ MAC  --- 10 ack 118 [13a 0 1 800] ------- [1:0 0:0 32 0] [3 0] 0 0
r 3.044074424 _0_ MAC  --- 10 ack 60 [13a 0 1 800] ------- [1:0 0:0 32 0] [3 0] 1 0
s 3.044084424 _0_ MAC  --- 0 ACK 38 [0 1 0 0] 
r 3.044099424 _0_ AGT  --- 10 ack 60 [13a 0 1 800] ------- [1:0 0:0 32 0] [3 0] 1 0
s 3.044099424 _0_ AGT  --- 13 tcp 1040 [0 0 0 0] ------- [0:0 1:0 32 0] [7 0] 0 0
r 3.044099424 _0_ RTR  --- 13 tcp 1040 [0 0 0 0] ------- [0:0 1:0 32 0] [7 0] 0 0
s 3.044099424 _0_ RTR  --- 13 tcp 1060 [0 0 0 0] ------- [0:0 1:0 32 1] [7 0] 0 0
s 3.044099424 _0_ AGT  --- 14 tcp 1040 [0 0 0 0] ------- [0:0 1:0 32 0] [8 0] 0 0
r 3.044099424 _0_ RTR  --- 14 tcp 1040 [0 0 0 0] ------- [0:0 1:0 32 0] [8 0] 0 0
s 3.044099424 _0_ RTR  --- 14 tcp 1060 [0 0 0 0] ------- [0:0 1:0 32 1] [8 0] 0 0
r 3.044388438 _1_ MAC  --- 0 ACK 38 [0 1 0 0] 
s 3.044538424 _0_ MAC  --- 0 RTS 44 [256e 1 0 0] 
r 3.044890438 _1_ MAC  --- 0 RTS 44 [256e 1 0 0] 
s 3.044900438 _1_ MAC  --- 0 CTS 38 [2434 0 0 0] 
r 3.045204453 _0_ MAC  --- 0 CTS 38 [2434 0 0 0] 
s 3.045214453 _0_ MAC  --- 8 tcp 1118 [13a 1 0 800] ------- [0:0 1:0 32 1] [4 0] 0 0
r 3.054158467 _1_ MAC  --- 8 tcp 1060 [13a 1 0 800] ------- [0:0 1:0 32 1] [4 0] 1 0
s 3.054168467 _1_ MAC  --- 0 ACK 38 [0 0 0 0] 
r 3.054183467 _1_ AGT  --- 8 tcp 1060 [13a 1 0 800] ------- [0:0 1:0 32 1] [4 0] 1 0
s 3.054183467 _1_ AGT  --- 15 ack 40 [0 0 0 0] ------- [1:0 0:0 32 0] [4 0] 0 0
r 3.054183467 _1_ RTR  --- 15 ack 40 [0 0 0 0] ------- [1:0 0:0 32 0] [4 0] 0 0
s 3.054183467 _1_ RTR  --- 15 ack 60 [0 0 0 0] ------- [1:0 0:0 32 0] [4 0] 0 0
r 3.054472481 _0_ MAC  --- 0 ACK 38 [0 0 0 0] 
s 3.054662467 _1_ MAC  --- 0 RTS 44 [62e 0 1 0] 
r 3.055014481 _0_ MAC  --- 0 RTS 44 [62e 0 1 0] 
s 3.055024481 _0_ MAC  --- 0 CTS 38 [4f4 1 0 0] 
r 3.055328495 _1_ MAC  --- 0 CTS 38 [4f4 1 0 0] 
s 3.055338495 _1_ MAC  --- 15 ack 118 [13a 0 1 800] ------- [1:0 0:0 32 0] [4 0] 0 0
r 3.056282509 _0_ MAC  --- 15 ack 60 [13a 0 1 800] ------- [1:0 0:0 32 0] [4 0] 1 0
s 3.056292509 _0_ MAC  --- 0 ACK 38 [0 1 0 0] 
r 3.056307509 _0_ AGT  --- 15 ack 60 [13a 0 1 800] ------- [1:0 0:0 32 0] [4 0] 1 0
s 3.056307509 _0_ AGT  --- 16 tcp 1040 [0 0 0 0] ------- [0:0 1:0 32 0] [9 0] 0 0
r 3.056307509 _0_ RTR  --- 16 tcp 1040 [0 0 0 0] ------- [0:0 1:0 32 0] [9 0] 0 0
s 3.056307509 _0_ RTR  --- 16 tcp 1060 [0 0 0 0] ------- [0:0 1:0 32 1] [9 0] 0 0
s 3.056307509 _0_ AGT  --- 17 tcp 1040 [0 0 0 0] ------- [0:0 1:0 32 0] [10 0] 0 0
r 3.056307509 _0_ RTR  --- 17 tcp 1040 [0 0 0 0] ------- [0:0 1:0 32 0] [10 0] 0 0
s 3.056307509 _0_ RTR  --- 17 tcp 1060 [0 0 0 0] ------- [0:0 1:0 32 1] [10 0] 0 0
r 3.056596523 _1_ MAC  --- 0 ACK 38 [0 1 0 0] 
s 3.056946509 _0_ MAC  --- 0 RTS 44 [256e 1 0 0] 
r 3.057298523 _1_ MAC  --- 0 RTS 44 [256e 1 0 0] 
s 3.057308523 _1_ MAC  --- 0 CTS 38 [2434 0 0 0] 
r 3.057612537 _0_ MAC  --- 0 CTS 38 [2434 0 0 0] 
s 3.057622537 _0_ MAC  --- 11 tcp 1118 [13a 1 0 800] ------- [0:0 1:0 32 1] [5 0] 0 0
r 3.066566552 _1_ MAC  --- 11 tcp 1060 [13a 1 0 800] ------- [0:0 1:0 32 1] [5 0] 1 0
s 3.066576552 _1_ MAC  --- 0 ACK 38 [0 0 0 0] 
r 3.066591552 _1_ AGT  --- 11 tcp 1060 [13a 1 0 800] ------- [0:0 1:0 32 1] [5 0] 1 0
s 3.066591552 _1_ AGT  --- 18 ack 40 [0 0 0 0] ------- [1:0 0:0 32 0] [5 0] 0 0
r 3.066591552 _1_ RTR  --- 18 ack 40 [0 0 0 0] ------- [1:0 0:0 32 0] [5 0] 0 0
s 3.066591552 _1_ RTR  --- 18 ack 60 [0 0 0 0] ------- [1:0 0:0 32 0] [5 0] 0 0
r 3.066880566 _0_ MAC  --- 0 ACK 38 [0 0 0 0] 
s 3.067330566 _0_ MAC  --- 0 RTS 44 [256e 1 0 0] 
r 3.067682580 _1_ MAC  --- 0 RTS 44 [256e 1 0 0] 
s 3.067692580 _1_ MAC  --- 0 CTS 38 [2434 0 0 0] 
r 3.067996594 _0_ MAC  --- 0 CTS 38 [2434 0 0 0] 
s 3.068006594 _0_ MAC  --- 12 tcp 1118 [13a 1 0 800] ------- [0:0 1:0 32 1] [6 0] 0 0
r 3.076950608 _1_ MAC  --- 12 tcp 1060 [13a 1 0 800] ------- [0:0 1:0 32 1] [6 0] 1 0
s 3.076960608 _1_ MAC  --- 0 ACK 38 [0 0 0 0] 
r 3.076975608 _1_ AGT  --- 12 tcp 1060 [13a 1 0 800] ------- [0:0 1:0 32 1] [6 0] 1 0
s 3.076975608 _1_ AGT  --- 19 ack 40 [0 0 0 0] ------- [1:0 0:0 32 0] [6 0] 0 0
r 3.076975608 _1_ RTR  --- 19 ack 40 [0 0 0 0] ------- [1:0 0:0 32 0] [6 0] 0 0
s 3.076975608 _1_ RTR  --- 19 ack 60 [0 0 0 0] ------- [1:0 0:0 32 0] [6 0] 0 0
r 3.077264622 _0_ MAC  --- 0 ACK 38 [0 0 0 0] 
s 3.077494608 _1_ MAC  --- 0 RTS 44 [62e 0 1 0] 
r 3.077846622 _0_ MAC  --- 0 RTS 44 [62e 0 1 0] 
s 3.077856622 _0_ MAC  --- 0 CTS 38 [4f4 1 0 0] 
r 3.078160636 _1_ MAC  --- 0 CTS 38 [4f4 1 0 0] 
s 3.078170636 _1_ MAC  --- 18 ack 118 [13a 0 1 800] ------- [1:0 0:0 32 0] [5 0] 0 0
r 3.079114651 _0_ MAC  --- 18 ack 60 [13a 0 1 800] ------- [1:0 0:0 32 0] [5 0] 1 0
s 3.079124651 _0_ MAC  --- 0 ACK 38 [0 1 0 0] 
r 3.079139651 _0_ AGT  --- 18 ack 60 [13a 0 1 800] ------- [1:0 0:0 32 0] [5 0] 1 0
s 3.079139651 _0_ AGT  --- 20 tcp 1040 [0 0 0 0] ------- [0:0 1:0 32 0] [11 0] 0 0
r 3.079139651 _0_ RTR  --- 20 tcp 1040 [0 0 0 0] ------- [0:0 1:0 32 0] [11 0] 0 0
s 3.079139651 _0_ RTR  --- 20 tcp 1060 [0 0 0 0] ------- [0:0 1:0 32 1] [11 0] 0 0
s 3.079139651 _0_ AGT  --- 21 tcp 1040 [0 0 0 0] ------- [0:0 1:0 32 0] [12 0] 0 0
r 3.079139651 _0_ RTR  --- 21 tcp 1040 [0 0 0 0] ------- [0:0 1:0 32 0] [12 0] 0 0
s 3.079139651 _0_ RTR  --- 21 tcp 1060 [0 0 0 0] ------- [0:0 1:0 32 1] [12 0] 0 0
r 3.079428665 _1_ MAC  --- 0 ACK 38 [0 1 0 0] 
s 3.079838651 _0_ MAC  --- 0 RTS 44 [256e 1 0 0] 
s 3.079838665 _1_ MAC  --- 0 RTS 44 [62e 0 1 0] 
s 3.081624679 _0_ MAC  --- 0 RTS 44 [256e 1 0 0] 
r 3.081976693 _1_ MAC  --- 0 RTS 44 [256e 1 0 0] 
s 3.081986693 _1_ MAC  --- 0 CTS 38 [2434 0 0 0] 
r 3.082290707 _0_ MAC  --- 0 CTS 38 [2434 0 0 0] 
s 3.082300707 _0_ MAC  --- 13 tcp 1118 [13a 1 0 800] ------- [0:0 1:0 32 1] [7 0] 0 0
r 3.091244721 _1_ MAC  --- 13 tcp 1060 [13a 1 0 800] ------- [0:0 1:0 32 1] [7 0] 1 0
s 3.091254721 _1_ MAC  --- 0 ACK 38 [0 0 0 0] 
r 3.091269721 _1_ AGT  --- 13 tcp 1060 [13a 1 0 800] ------- [0:0 1:0 32 1] [7 0] 1 0
s 3.091269721 _1_ AGT  --- 22 ack 40 [0 0 0 0] ------- [1:0 0:0 32 0] [7 0] 0 0
r 3.091269721 _1_ RTR  --- 22 ack 40 [0 0 0 0] ------- [1:0 0:0 32 0] [7 0] 0 0
s 3.091269721 _1_ RTR  --- 22 ack 60 [0 0 0 0] ------- [1:0 0:0 32 0] [7 0] 0 0
r 3.091558735 _0_ MAC  --- 0 ACK 38 [0 0 0 0] 
s 3.091708721 _1_ MAC  --- 0 RTS 44 [62e 0 1 0] 
r 3.092060735 _0_ MAC  --- 0 RTS 44 [62e 0 1 0] 
s 3.092070735 _0_ MAC  --- 0 CTS 38 [4f4 1 0 0] 
r 3.092374750 _1_ MAC  --- 0 CTS 38 [4f4 1 0 0] 
s 3.092384750 _1_ MAC  --- 19 ack 118 [13a 0 1 800] ------- [1:0 0:0 32 0] [6 0] 0 0
r 3.093328764 _0_ MAC  --- 19 ack 60 [13a 0 1 800] ------- [1:0 0:0 32 0] [6 0] 1 0
s 3.093338764 _0_ MAC  --- 0 ACK 38 [0 1 0 0] 
r 3.093353764 _0_ AGT  --- 19 ack 60 [13a 0 1 800] ------- [1:0 0:0 32 0] [6 0] 1 0
s 3.093353764 _0_ AGT  --- 23 tcp 1040 [0 0 0 0] ------- [0:0 1:0 32 0] [13 0] 0 0
r 3.093353764 _0_ RTR  --- 23 tcp 1040 [0 0 0 0] ------- [0:0 1:0 32 0] [13 0] 0 0
s 3.093353764 _0_ RTR  --- 23 tcp 1060 [0 0 0 0] ------- [0:0 1:0 32 1] [13 0] 0 0
s 3.093353764 _0_ AGT  --- 24 tcp 1040 [0 0 0 0] ------- [0:0 1:0 32 0] [14 0] 0 0
r 3.093353764 _0_ RTR  --- 24 tcp 1040 [0 0 0 0] ------- [0:0 1:0 32 0] [14 0] 0 0
s 3.093353764 _0_ RTR  --- 24 tcp 1060 [0 0 0 0] ------- [0:0 1:0 32 1] [14 0] 0 0
r 3.093642778 _1_ MAC  --- 0 ACK 38 [0 1 0 0] 
s 3.093832778 _1_ MAC  --- 0 RTS 44 [62e 0 1 0] 
r 3.094184792 _0_ MAC  --- 0 RTS 44 [62e 0 1 0] 
s 3.094194792 _0_ MAC  --- 0 CTS 38 [4f4 1 0 0] 
r 3.094498806 _1_ MAC  --- 0 CTS 38 [4f4 1 0 0] 
s 3.094508806 _1_ MAC  --- 22 ack 118 [13a 0 1 800] ------- [1:0 0:0 32 0] [7 0] 0 0
r 3.095452820 _0_ MAC  --- 22 ack 60 [13a 0 1 800] ------- [1:0 0:0 32 0] [7 0] 1 0
s 3.095462820 _0_ MAC  --- 0 ACK 38 [0 1 0 0] 
r 3.095477820 _0_ AGT  --- 22 ack 60 [13a 0 1 800] ------- [1:0 0:0 32 0] [7 0] 1 0
s 3.095477820 _0_ AGT  --- 25 tcp 1040 [0 0 0 0] ------- [0:0 1:0 32 0] [15 0] 0 0
r 3.095477820 _0_ RTR  --- 25 tcp 1040 [0 0 0 0] ------- [0:0 1:0 32 0] [15 0] 0 0
s 3.095477820 _0_ RTR  --- 25 tcp 1060 [0 0 0 0] ------- [0:0 1:0 32 1] [15 0] 0 0
s 3.095477820 _0_ AGT  --- 26 tcp 1040 [0 0 0 0] ------- [0:0 1:0 32 0] [16 0] 0 0
r 3.095477820 _0_ RTR  --- 26 tcp 1040 [0 0 0 0] ------- [0:0 1:0 32 0] [16 0] 0 0
s 3.095477820 _0_ RTR  --- 26 tcp 1060 [0 0 0 0] ------- [0:0 1:0 32 1] [16 0] 0 0
r 3.095766834 _1_ MAC  --- 0 ACK 38 [0 1 0 0] 
s 3.095936820 _0_ MAC  --- 0 RTS 44 [256e 1 0 0] 
r 3.096288834 _1_ MAC  --- 0 RTS 44 [256e 1 0 0] 
s 3.096298834 _1_ MAC  --- 0 CTS 38 [2434 0 0 0] 
r 3.096602849 _0_ MAC  --- 0 CTS 38 [2434 0 0 0] 
s 3.096612849 _0_ MAC  --- 14 tcp 1118 [13a 1 0 800] ------- [0:0 1:0 32 1] [8 0] 0 0
r 3.105556863 _1_ MAC  --- 14 tcp 1060 [13a 1 0 800] ------- [0:0 1:0 32 1] [8 0] 1 0
s 3.105566863 _1_ MAC  --- 0 ACK 38 [0 0 0 0] 
r 3.105581863 _1_ AGT  --- 14 tcp 1060 [13a 1 0 800] ------- [0:0 1:0 32 1] [8 0] 1 0
s 3.105581863 _1_ AGT  --- 27 ack 40 [0 0 0 0] ------- [1:0 0:0 32 0] [8 0] 0 0
r 3.105581863 _1_ RTR  --- 27 ack 40 [0 0 0 0] ------- [1:0 0:0 32 0] [8 0] 0 0
s 3.105581863 _1_ RTR  --- 27 ack 60 [0 0 0 0] ------- [1:0 0:0 32 0] [8 0] 0 0
r 3.105870877 _0_ MAC  --- 0 ACK 38 [0 0 0 0] 
s 3.106120877 _0_ MAC  --- 0 RTS 44 [256e 1 0 0] 
r 3.106472891 _1_ MAC  --- 0 RTS 44 [256e 1 0 0] 
s 3.106482891 _1_ MAC  --- 0 CTS 38 [2434 0 0 0] 
r 3.106786905 _0_ MAC  --- 0 CTS 38 [2434 0 0 0] 
s 3.106796905 _0_ MAC  --- 16 tcp 1118 [13a 1 0 800] ------- [0:0 1:0 32 1] [9 0] 0 0
r 3.115740919 _1_ MAC  --- 16 tcp 1060 [13a 1 0 800] ------- [0:0 1:0 32 1] [9 0] 1 0
s 3.115750919 _1_ MAC  --- 0 ACK 38 [0 0 0 0] 
r 3.115765919 _1_ AGT  --- 16 tcp 1060 [13a 1 0 800] ------- [0:0 1:0 32 1] [9 0] 1 0
s 3.115765919 _1_ AGT  --- 28 ack 40 [0 0 0 0] ------- [1:0 0:0 32 0] [9 0] 0 0
r 3.115765919 _1_ RTR  --- 28 ack 40 [0 0 0 0] ------- [1:0 0:0 32 0] [9 0] 0 0
s 3.115765919 _1_ RTR  --- 28 ack 60 [0 0 0 0] ------- [1:0 0:0 32 0] [9 0] 0 0
r 3.116054933 _0_ MAC  --- 0 ACK 38 [0 0 0 0] 
s 3.116184919 _1_ MAC  --- 0 RTS 44 [62e 0 1 0] 
r 3.116536933 _0_ MAC  --- 0 RTS 44 [62e 0 1 0] 
s 3.116546933 _0_ MAC  --- 0 CTS 38 [4f4 1 0 0] 
r 3.116850948 _1_ MAC  --- 0 CTS 38 [4f4 1 0 0] 
s 3.116860948 _1_ MAC  --- 27 ack 118 [13a 0 1 800] ------- [1:0 0:0 32 0] [8 0] 0 0
r 3.117804962 _0_ MAC  --- 27 ack 60 [13a 0 1 800] ------- [1:0 0:0 32 0] [8 0] 1 0
s 3.117814962 _0_ MAC  --- 0 ACK 38 [0 1 0 0] 
r 3.117829962 _0_ AGT  --- 27 ack 60 [13a 0 1 800] ------- [1:0 0:0 32 0] [8 0] 1 0
s 3.117829962 _0_ AGT  --- 29 tcp 1040 [0 0 0 0] ------- [0:0 1:0 32 0] [17 0] 0 0
r 3.117829962 _0_ RTR  --- 29 tcp 1040 [0 0 0 0] ------- [0:0 1:0 32 0] [17 0] 0 0
s 3.117829962 _0_ RTR  --- 29 tcp 1060 [0 0 0 0] ------- [0:0 1:0 32 1] [17 0] 0 0
s 3.117829962 _0_ AGT  --- 30 tcp 1040 [0 0 0 0] ------- [0:0 1:0 32 0] [18 0] 0 0
r 3.117829962 _0_ RTR  --- 30 tcp 1040 [0 0 0 0] ------- [0:0 1:0 32 0] [18 0] 0 0
s 3.117829962 _0_ RTR  --- 30 tcp 1060 [0 0 0 0] ------- [0:0 1:0 32 1] [18 0] 0 0
r 3.118118976 _1_ MAC  --- 0 ACK 38 [0 1 0 0] 
s 3.118188962 _0_ MAC  --- 0 RTS 44 [256e 1 0 0] 
r 3.118540976 _1_ MAC  --- 0 RTS 44 [256e 1 0 0] 
s 3.118550976 _1_ MAC  --- 0 CTS 38 [2434 0 0 0] 
r 3.118854990 _0_ MAC  --- 0 CTS 38 [2434 0 0 0] 
s 3.118864990 _0_ MAC  --- 17 tcp 1118 [13a 1 0 800] ------- [0:0 1:0 32 1] [10 0] 0 0
r 3.127809004 _1_ MAC  --- 17 tcp 1060 [13a 1 0 800] ------- [0:0 1:0 32 1] [10 0] 1 0
s 3.127819004 _1_ MAC  --- 0 ACK 38 [0 0 0 0] 
r 3.127834004 _1_ AGT  --- 17 tcp 1060 [13a 1 0 800] ------- [0:0 1:0 32 1] [10 0] 1 0
s 3.127834004 _1_ AGT  --- 31 ack 40 [0 0 0 0] ------- [1:0 0:0 32 0] [10 0] 0 0
r 3.127834004 _1_ RTR  --- 31 ack 40 [0 0 0 0] ------- [1:0 0:0 32 0] [10 0] 0 0
s 3.127834004 _1_ RTR  --- 31 ack 60 [0 0 0 0] ------- [1:0 0:0 32 0] [10 0] 0 0
r 3.128123018 _0_ MAC  --- 0 ACK 38 [0 0 0 0] 
s 3.128393018 _0_ MAC  --- 0 RTS 44 [256e 1 0 0] 
r 3.128745032 _1_ MAC  --- 0 RTS 44 [256e 1 0 0] 
s 3.128755032 _1_ MAC  --- 0 CTS 38 [2434 0 0 0] 
r 3.129059047 _0_ MAC  --- 0 CTS 38 [2434 0 0 0] 
s 3.129069047 _0_ MAC  --- 20 tcp 1118 [13a 1 0 800] ------- [0:0 1:0 32 1] [11 0] 0 0
r 3.138013061 _1_ MAC  --- 20 tcp 1060 [13a 1 0 800] ------- [0:0 1:0 32 1] [11 0] 1 0
s 3.138023061 _1_ MAC  --- 0 ACK 38 [0 0 0 0] 
r 3.138038061 _1_ AGT  --- 20 tcp 1060 [13a 1 0 800] ------- [0:0 1:0 32 1] [11 0] 1 0
s 3.138038061 _1_ AGT  --- 32 ack 40 [0 0 0 0] ------- [1:0 0:0 32 0] [11 0] 0 0
r 3.138038061 _1_ RTR  --- 32 ack 40 [0 0 0 0] ------- [1:0 0:0 32 0] [11 0] 0 0
s 3.138038061 _1_ RTR  --- 32 ack 60 [0 0 0 0] ------- [1:0 0:0 32 0] [11 0] 0 0
r 3.138327075 _0_ MAC  --- 0 ACK 38 [0 0 0 0] 
s 3.138577075 _0_ MAC  --- 0 RTS 44 [256e 1 0 0] 
r 3.138929089 _1_ MAC  --- 0 RTS 44 [256e 1 0 0] 
s 3.138939089 _1_ MAC  --- 0 CTS 38 [2434 0 0 0] 
r 3.139243103 _0_ MAC  --- 0 CTS 38 [2434 0 0 0] 
s 3.139253103 _0_ MAC  --- 21 tcp 1118 [13a 1 0 800] ------- [0:0 1:0 32 1] [12 0] 0 0
r 3.148197117 _1_ MAC  --- 21 tcp 1060 [13a 1 0 800] ------- [0:0 1:0 32 1] [12 0] 1 0
s 3.148207117 _1_ MAC  --- 0 ACK 38 [0 0 0 0] 
r 3.148222117 _1_ AGT  --- 21 tcp 1060 [13a 1 0 800] ------- [0:0 1:0 32 1] [12 0] 1 0
s 3.148222117 _1_ AGT  --- 33 ack 40 [0 0 0 0] ------- [1:0 0:0 32 0] [12 0] 0 0
r 3.148222117 _1_ RTR  --- 33 ack 40 [0 0 0 0] ------- [1:0 0:0 32 0] [12 0] 0 0
s 3.148222117 _1_ RTR  --- 33 ack 60 [0 0 0 0] ------- [1:0 0:0 32 0] [12 0] 0 0
r 3.148511131 _0_ MAC  --- 0 ACK 38 [0 0 0 0] 
s 3.148641117 _1_ MAC  --- 0 RTS 44 [62e 0 1 0] 
r 3.148993131 _0_ MAC  --- 0 RTS 44 [62e 0 1 0] 
s 3.149003131 _0_ MAC  --- 0 CTS 38 [4f4 1 0 0] 
r 3.149307146 _1_ MAC  --- 0 CTS 38 [4f4 1 0 0] 
s 3.149317146 _1_ MAC  --- 28 ack 118 [13a 0 1 800] ------- [1:0 0:0 32 0] [9 0] 0 0
r 3.150261160 _0_ MAC  --- 28 ack 60 [13a 0 1 800] ------- [1:0 0:0 32 0] [9 0] 1 0
s 3.150271160 _0_ MAC  --- 0 ACK 38 [0 1 0 0] 
r 3.150286160 _0_ AGT  --- 28 ack 60 [13a 0 1 800] ------- [1:0 0:0 32 0] [9 0] 1 0
s 3.150286160 _0_ AGT  --- 34 tcp 1040 [0 0 0 0] ------- [0:0 1:0 32 0] [19 0] 0 0
r 3.150286160 _0_ RTR  --- 34 tcp 1040 [0 0 0 0] ------- [0:0 1:0 32 0] [19 0] 0 0
s 3.150286160 _0_ RTR  --- 34 tcp 1060 [0 0 0 0] ------- [0:0 1:0 32 1] [19 0] 0 0
s 3.150286160 _0_ AGT  --- 35 tcp 1040 [0 0 0 0] ------- [0:0 1:0 32 0] [20 0] 0 0
r 3.150286160 _0_ RTR  --- 35 tcp 1040 [0 0 0 0] ------- [0:0 1:0 32 0] [20 0] 0 0
s 3.150286160 _0_ RTR  --- 35 tcp 1060 [0 0 0 0] ------- [0:0 1:0 32 1] [20 0] 0 0
r 3.150575174 _1_ MAC  --- 0 ACK 38 [0 1 0 0] 
s 3.150685174 _1_ MAC  --- 0 RTS 44 [62e 0 1 0] 
r 3.151037188 _0_ MAC  --- 0 RTS 44 [62e 0 1 0] 
s 3.151047188 _0_ MAC  --- 0 CTS 38 [4f4 1 0 0] 
r 3.151351202 _1_ MAC  --- 0 CTS 38 [4f4 1 0 0] 
s 3.151361202 _1_ MAC  --- 31 ack 118 [13a 0 1 800] ------- [1:0 0:0 32 0] [10 0] 0 0
r 3.152305216 _0_ MAC  --- 31 ack 60 [13a 0 1 800] ------- [1:0 0:0 32 0] [10 0] 1 0
s 3.152315216 _0_ MAC  --- 0 ACK 38 [0 1 0 0] 
r 3.152330216 _0_ AGT  --- 31 ack 60 [13a 0 1 800] ------- [1:0 0:0 32 0] [10 0] 1 0
s 3.152330216 _0_ AGT  --- 36 tcp 1040 [0 0 0 0] ------- [0:0 1:0 32 0] [21 0] 0 0
r 3.152330216 _0_ RTR  --- 36 tcp 1040 [0 0 0 0] ------- [0:0 1:0 32 0] [21 0] 0 0
s 3.152330216 _0_ RTR  --- 36 tcp 1060 [0 0 0 0] ------- [0:0 1:0 32 1] [21 0] 0 0
s 3.152330216 _0_ AGT  --- 37 tcp 1040 [0 0 0 0] ------- [0:0 1:0 32 0] [22 0] 0 0
r 3.152330216 _0_ RTR  --- 37 tcp 1040 [0 0 0 0] ------- [0:0 1:0 32 0] [22 0] 0 0
s 3.152330216 _0_ RTR  --- 37 tcp 1060 [0 0 0 0] ------- [0:0 1:0 32 1] [22 0] 0 0
r 3.152619230 _1_ MAC  --- 0 ACK 38 [0 1 0 0] 
s 3.152789230 _1_ MAC  --- 0 RTS 44 [62e 0 1 0] 
r 3.153141245 _0_ MAC  --- 0 RTS 44 [62e 0 1 0] 
s 3.153151245 _0_ MAC  --- 0 CTS 38 [4f4 1 0 0] 
r 3.153455259 _1_ MAC  --- 0 CTS 38 [4f4 1 0 0] 
s 3.153465259 _1_ MAC  --- 32 ack 118 [13a 0 1 800] ------- [1:0 0:0 32 0] [11 0] 0 0
r 3.154409273 _0_ MAC  --- 32 ack 60 [13a 0 1 800] ------- [1:0 0:0 32 0] [11 0] 1 0
s 3.154419273 _0_ MAC  --- 0 ACK 38 [0 1 0 0] 
r 3.154434273 _0_ AGT  --- 32 ack 60 [13a 0 1 800] ------- [1:0 0:0 32 0] [11 0] 1 0
s 3.154434273 _0_ AGT  --- 38 tcp 1040 [0 0 0 0] ------- [0:0 1:0 32 0] [23 0] 0 0
r 3.154434273 _0_ RTR  --- 38 tcp 1040 [0 0 0 0] ------- [0:0 1:0 32 0] [23 0] 0 0
s 3.154434273 _0_ RTR  --- 38 tcp 1060 [0 0 0 0] ------- [0:0 1:0 32 1] [23 0] 0 0
s 3.154434273 _0_ AGT  --- 39 tcp 1040 [0 0 0 0] ------- [0:0 1:0 32 0] [24 0] 0 0
r 3.154434273 _0_ RTR  --- 39 tcp 1040 [0 0 0 0] ------- [0:0 1:0 32 0] [24 0] 0 0
s 3.154434273 _0_ RTR  --- 39 tcp 1060 [0 0 0 0] ------- [0:0 1:0 32 1] [24 0] 0 0
r 3.154723287 _1_ MAC  --- 0 ACK 38 [0 1 0 0] 
s 3.155093273 _0_ MAC  --- 0 RTS 44 [256e 1 0 0] 
r 3.155445287 _1_ MAC  --- 0 RTS 44 [256e 1 0 0] 
s 3.155455287 _1_ MAC  --- 0 CTS 38 [2434 0 0 0] 
r 3.155759301 _0_ MAC  --- 0 CTS 38 [2434 0 0 0] 
s 3.155769301 _0_ MAC  --- 23 tcp 1118 [13a 1 0 800] ------- [0:0 1:0 32 1] [13 0] 0 0
r 3.164713315 _1_ MAC  --- 23 tcp 1060 [13a 1 0 800] ------- [0:0 1:0 32 1] [13 0] 1 0
s 3.164723315 _1_ MAC  --- 0 ACK 38 [0 0 0 0] 
r 3.164738315 _1_ AGT  --- 23 tcp 1060 [13a 1 0 800] ------- [0:0 1:0 32 1] [13 0] 1 0
s 3.164738315 _1_ AGT  --- 40 ack 40 [0 0 0 0] ------- [1:0 0:0 32 0] [13 0] 0 0
r 3.164738315 _1_ RTR  --- 40 ack 40 [0 0 0 0] ------- [1:0 0:0 32 0] [13 0] 0 0
s 3.164738315 _1_ RTR  --- 40 ack 60 [0 0 0 0] ------- [1:0 0:0 32 0] [13 0] 0 0
r 3.165027329 _0_ MAC  --- 0 ACK 38 [0 0 0 0] 
s 3.165097315 _1_ MAC  --- 0 RTS 44 [62e 0 1 0] 
r 3.165449329 _0_ MAC  --- 0 RTS 44 [62e 0 1 0] 
s 3.165459329 _0_ MAC  --- 0 CTS 38 [4f4 1 0 0] 
r 3.165763344 _1_ MAC  --- 0 CTS 38 [4f4 1 0 0] 
s 3.165773344 _1_ MAC  --- 33 ack 118 [13a 0 1 800] ------- [1:0 0:0 32 0] [12 0] 0 0
r 3.166717358 _0_ MAC  --- 33 ack 60 [13a 0 1 800] ------- [1:0 0:0 32 0] [12 0] 1 0
s 3.166727358 _0_ MAC  --- 0 ACK 38 [0 1 0 0] 
r 3.166742358 _0_ AGT  --- 33 ack 60 [13a 0 1 800] ------- [1:0 0:0 32 0] [12 0] 1 0
s 3.166742358 _0_ AGT  --- 41 tcp 1040 [0 0 0 0] ------- [0:0 1:0 32 0] [25 0] 0 0
r 3.166742358 _0_ RTR  --- 41 tcp 1040 [0 0 0 0] ------- [0:0 1:0 32 0] [25 0] 0 0
s 3.166742358 _0_ RTR  --- 41 tcp 1060 [0 0 0 0] ------- [0:0 1:0 32 1] [25 0] 0 0
s 3.166742358 _0_ AGT  --- 42 tcp 1040 [0 0 0 0] ------- [0:0 1:0 32 0] [26 0] 0 0
r 3.166742358 _0_ RTR  --- 42 tcp 1040 [0 0 0 0] ------- [0:0 1:0 32 0] [26 0] 0 0
s 3.166742358 _0_ RTR  --- 42 tcp 1060 [0 0 0 0] ------- [0:0 1:0 32 1] [26 0] 0 0
r 3.167031372 _1_ MAC  --- 0 ACK 38 [0 1 0 0] 
s 3.167361372 _1_ MAC  --- 0 RTS 44 [62e 0 1 0] 
r 3.167713386 _0_ MAC  --- 0 RTS 44 [62e 0 1 0] 
s 3.167723386 _0_ MAC  --- 0 CTS 38 [4f4 1 0 0] 
r 3.168027400 _1_ MAC  --- 0 CTS 38 [4f4 1 0 0] 
s 3.168037400 _1_ MAC  --- 40 ack 118 [13a 0 1 800] ------- [1:0 0:0 32 0] [13 0] 0 0
r 3.168981414 _0_ MAC  --- 40 ack 60 [13a 0 1 800] ------- [1:0 0:0 32 0] [13 0] 1 0
s 3.168991414 _0_ MAC  --- 0 ACK 38 [0 1 0 0] 
r 3.169006414 _0_ AGT  --- 40 ack 60 [13a 0 1 800] ------- [1:0 0:0 32 0] [13 0] 1 0
s 3.169006414 _0_ AGT  --- 43 tcp 1040 [0 0 0 0] ------- [0:0 1:0 32 0] [27 0] 0 0
r 3.169006414 _0_ RTR  --- 43 tcp 1040 [0 0 0 0] ------- [0:0 1:0 32 0] [27 0] 0 0
s 3.169006414 _0_ RTR  --- 43 tcp 1060 [0 0 0 0] ------- [0:0 1:0 32 1] [27 0] 0 0
s 3.169006414 _0_ AGT  --- 44 tcp 1040 [0 0 0 0] ------- [0:0 1:0 32 0] [28 0] 0 0
r 3.169006414 _0_ RTR  --- 44 tcp 1040 [0 0 0 0] ------- [0:0 1:0 32 0] [28 0] 0 0
s 3.169006414 _0_ RTR  --- 44 tcp 1060 [0 0 0 0] ------- [0:0 1:0 32 1] [28 0] 0 0
r 3.169295428 _1_ MAC  --- 0 ACK 38 [0 1 0 0] 
s 3.169545414 _0_ MAC  --- 0 RTS 44 [256e 1 0 0] 
r 3.169897428 _1_ MAC  --- 0 RTS 44 [256e 1 0 0] 
s 3.169907428 _1_ MAC  --- 0 CTS 38 [2434 0 0 0] 
r 3.170211442 _0_ MAC  --- 0 CTS 38 [2434 0 0 0] 
s 3.170221442 _0_ MAC  --- 24 tcp 1118 [13a 1 0 800] ------- [0:0 1:0 32 1] [14 0] 0 0
r 3.179165457 _1_ MAC  --- 24 tcp 1060 [13a 1 0 800] ------- [0:0 1:0 32 1] [14 0] 1 0
s 3.179175457 _1_ MAC  --- 0 ACK 38 [0 0 0 0] 
r 3.179190457 _1_ AGT  --- 24 tcp 1060 [13a 1 0 800] ------- [0:0 1:0 32 1] [14 0] 1 0
s 3.179190457 _1_ AGT  --- 45 ack 40 [0 0 0 0] ------- [1:0 0:0 32 0] [14 0] 0 0
r 3.179190457 _1_ RTR  --- 45 ack 40 [0 0 0 0] ------- [1:0 0:0 32 0] [14 0] 0 0
s 3.179190457 _1_ RTR  --- 45 ack 60 [0 0 0 0] ------- [1:0 0:0 32 0] [14 0] 0 0
r 3.179479471 _0_ MAC  --- 0 ACK 38 [0 0 0 0] 
s 3.179809457 _1_ MAC  --- 0 RTS 44 [62e 0 1 0] 
r 3.180161471 _0_ MAC  --- 0 RTS 44 [62e 0 1 0] 
s 3.180171471 _0_ MAC  --- 0 CTS 38 [4f4 1 0 0] 
r 3.180475485 _1_ MAC  --- 0 CTS 38 [4f4 1 0 0] 
s 3.180485485 _1_ MAC  --- 45 ack 118 [13a 0 1 800] ------- [1:0 0:0 32 0] [14 0] 0 0
r 3.181429499 _0_ MAC  --- 45 ack 60 [13a 0 1 800] ------- [1:0 0:0 32 0] [14 0] 1 0
s 3.181439499 _0_ MAC  --- 0 ACK 38 [0 1 0 0] 
r 3.181454499 _0_ AGT  --- 45 ack 60 [13a 0 1 800] ------- [1:0 0:0 32 0] [14 0] 1 0
s 3.181454499 _0_ AGT  --- 46 tcp 1040 [0 0 0 0] ------- [0:0 1:0 32 0] [29 0] 0 0
r 3.181454499 _0_ RTR  --- 46 tcp 1040 [0 0 0 0] ------- [0:0 1:0 32 0] [29 0] 0 0
s 3.181454499 _0_ RTR  --- 46 tcp 1060 [0 0 0 0] ------- [0:0 1:0 32 1] [29 0] 0 0
s 3.181454499 _0_ AGT  --- 47 tcp 1040 [0 0 0 0] ------- [0:0 1:0 32 0] [30 0] 0 0
r 3.181454499 _0_ RTR  --- 47 tcp 1040 [0 0 0 0] ------- [0:0 1:0 32 0] [30 0] 0 0
s 3.181454499 _0_ RTR  --- 47 tcp 1060 [0 0 0 0] ------- [0:0 1:0 32 1] [30 0] 0 0
r 3.181743513 _1_ MAC  --- 0 ACK 38 [0 1 0 0] 
s 3.181993499 _0_ MAC  --- 0 RTS 44 [256e 1 0 0] 
r 3.182345513 _1_ MAC  --- 0 RTS 44 [256e 1 0 0] 
s 3.182355513 _1_ MAC  --- 0 CTS 38 [2434 0 0 0] 
r 3.182659527 _0_ MAC  --- 0 CTS 38 [2434 0 0 0] 
s 3.182669527 _0_ MAC  --- 25 tcp 1118 [13a 1 0 800] ------- [0:0 1:0 32 1] [15 0] 0 0
r 3.191613541 _1_ MAC  --- 25 tcp 1060 [13a 1 0 800] ------- [0:0 1:0 32 1] [15 0] 1 0
s 3.191623541 _1_ MAC  --- 0 ACK 38 [0 0 0 0] 
r 3.191638541 _1_ AGT  --- 25 tcp 1060 [13a 1 0 800] ------- [0:0 1:0 32 1] [15 0] 1 0
s 3.191638541 _1_ AGT  --- 48 ack 40 [0 0 0 0] ------- [1:0 0:0 32 0] [15 0] 0 0
r 3.191638541 _1_ RTR  --- 48 ack 40 [0 0 0 0] ------- [1:0 0:0 32 0] [15 0] 0 0
s 3.191638541 _1_ RTR  --- 48 ack 60 [0 0 0 0] ------- [1:0 0:0 32 0] [15 0] 0 0
r 3.191927556 _0_ MAC  --- 0 ACK 38 [0 0 0 0] 
s 3.192197541 _1_ MAC  --- 0 RTS 44 [62e 0 1 0] 
r 3.192549556 _0_ MAC  --- 0 RTS 44 [62e 0 1 0] 